+ 0.483264 /NodeList/2/DeviceList/0/$ns3::CsmaNetDevice/TxQueue/Enqueue ns3::EthernetHeader ( length/type=0x800, source=00:00:00:00:00:04, destination=01:00:5e:00:00:09) ns3::Ipv4Header (tos 0x0 DSCP Default ECN Not-ECT ttl 1 id 0 protocol 17 offset (bytes) 0 flags [none] length: 52 10.0.1.2 > 224.0.0.9) ns3::UdpHeader (length: 32 520 > 520) ns3::RipHeader (command 1 | prefix 0.0.0.0/0 Metric 16 Tag 0 Next Hop 0.0.0.0) ns3::EthernetTrailer (fcs=0)
- 0.483264 /NodeList/2/DeviceList/0/$ns3::CsmaNetDevice/TxQueue/Dequeue ns3::EthernetHeader ( length/type=0x800, source=00:00:00:00:00:04, destination=01:00:5e:00:00:09) ns3::Ipv4Header (tos 0x0 DSCP Default ECN Not-ECT ttl 1 id 0 protocol 17 offset (bytes) 0 flags [none] length: 52 10.0.1.2 > 224.0.0.9) ns3::UdpHeader (length: 32 520 > 520) ns3::RipHeader (command 1 | prefix 0.0.0.0/0 Metric 16 Tag 0 Next Hop 0.0.0.0) ns3::EthernetTrailer (fcs=0)
r 0.484266 /NodeList/1/DeviceList/1/$ns3::CsmaNetDevice/MacRx ns3::EthernetHeader ( length/type=0x800, source=00:00:00:00:00:04, destination=01:00:5e:00:00:09) ns3::Ipv4Header (tos 0x0 DSCP Default ECN Not-ECT ttl 1 id 0 protocol 17 offset (bytes) 0 flags [none] length: 52 10.0.1.2 > 224.0.0.9) ns3::UdpHeader (length: 32 520 > 520) ns3::RipHeader (command 1 | prefix 0.0.0.0/0 Metric 16 Tag 0 Next Hop 0.0.0.0) ns3::EthernetTrailer (fcs=0)
+ 0.493266 /NodeList/1/DeviceList/1/$ns3::CsmaNetDevice/TxQueue/Enqueue ns3::EthernetHeader ( length/type=0x806, source=00:00:00:00:00:03, destination=ff:ff:ff:ff:ff:ff) ns3::ArpHeader (request source mac: 00-06-00:00:00:00:00:03 source ipv4: 10.0.1.1 dest ipv4: 10.0.1.2) Payload (size=18) ns3::EthernetTrailer (fcs=0)
- 0.493266 /NodeList/1/DeviceList/1/$ns3::CsmaNetDevice/TxQueue/Dequeue ns3::EthernetHeader ( length/type=0x806, source=00:00:00:00:00:03, destination=ff:ff:ff:ff:ff:ff) ns3::ArpHeader (request source mac: 00-06-00:00:00:00:00:03 source ipv4: 10.0.1.1 dest ipv4: 10.0.1.2) Payload (size=18) ns3::EthernetTrailer (fcs=0)
r 0.494269 /NodeList/2/DeviceList/0/$ns3::CsmaNetDevice/MacRx ns3::EthernetHeader ( length/type=0x806, source=00:00:00:00:00:03, destination=ff:ff:ff:ff:ff:ff) ns3::ArpHeader (request source mac: 00-06-00:00:00:00:00:03 source ipv4: 10.0.1.1 dest ipv4: 10.0.1.2) Payload (size=18) ns3::EthernetTrailer (fcs=0)
+ 0.494269 /NodeList/2/DeviceList/0/$ns3::CsmaNetDevice/TxQueue/Enqueue ns3::EthernetHeader ( length/type=0x806, source=00:00:00:00:00:04, destination=00:00:00:00:00:03) ns3::ArpHeader (reply source mac: 00-06-00:00:00:00:00:04 source ipv4: 10.0.1.2 dest mac: 00-06-00:00:00:00:00:03 dest ipv4: 10.0.1.1) Payload (size=18) ns3::EthernetTrailer (fcs=0)
- 0.494269 /NodeList/2/DeviceList/0/$ns3::CsmaNetDevice/TxQueue/Dequeue ns3::EthernetHeader ( length/type=0x806, source=00:00:00:00:00:04, destination=00:00:00:00:00:03) ns3::ArpHeader (reply source mac: 00-06-00:00:00:00:00:04 source ipv4: 10.0.1.2 dest mac: 00-06-00:00:00:00:00:03 dest ipv4: 10.0.1.1) Payload (size=18) ns3::EthernetTrailer (fcs=0)
r 0.495273 /NodeList/1/DeviceList/1/$ns3::CsmaNetDevice/MacRx ns3::EthernetHeader ( length/type=0x806, source=00:00:00:00:00:04, destination=00:00:00:00:00:03) ns3::ArpHeader (reply source mac: 00-06-00:00:00:00:00:04 source ipv4: 10.0.1.2 dest mac: 00-06-00:00:00:00:00:03 dest ipv4: 10.0.1.1) Payload (size=18) ns3::EthernetTrailer (fcs=0)
+ 0.495273 /NodeList/1/DeviceList/1/$ns3::CsmaNetDevice/TxQueue/Enqueue ns3::EthernetHeader ( length/type=0x800, source=00:00:00:00:00:03, destination=00:00:00:00:00:04) ns3::Ipv4Header (tos 0x0 DSCP Default ECN Not-ECT ttl 255 id 0 protocol 17 offset (bytes) 0 flags [none] length: 92 10.0.1.1 > 10.0.1.2) ns3::UdpHeader (length: 72 520 > 520) ns3::RipHeader (command 2 | prefix 10.0.0.0/24 Metric 1 Tag 0 Next Hop 0.0.0.0 | prefix 10.0.5.0/24 Metric 1 Tag 0 Next Hop 0.0.0.0 | prefix 10.0.6.0/24 Metric 1 Tag 0 Next Hop 0.0.0.0) ns3::EthernetTrailer (fcs=0)
- 0.495273 /NodeList/1/DeviceList/1/$ns3::CsmaNetDevice/TxQueue/Dequeue ns3::EthernetHeader ( length/type=0x800, source=00:00:00:00:00:03, destination=00:00:00:00:00:04) ns3::Ipv4Header (tos 0x0 DSCP Default ECN Not-ECT ttl 255 id 0 protocol 17 offset (bytes) 0 flags [none] length: 92 10.0.1.1 > 10.0.1.2) ns3::UdpHeader (length: 72 520 > 520) ns3::RipHeader (command 2 | prefix 10.0.0.0/24 Metric 1 Tag 0 Next Hop 0.0.0.0 | prefix 10.0.5.0/24 Metric 1 Tag 0 Next Hop 0.0.0.0 | prefix 10.0.6.0/24 Metric 1 Tag 0 Next Hop 0.0.0.0) ns3::EthernetTrailer (fcs=0)
r 0.496278 /NodeList/2/DeviceList/0/$ns3::CsmaNetDevice/MacRx ns3::EthernetHeader ( length/type=0x800, source=00:00:00:00:00:03, destination=00:00:00:00:00:04) ns3::Ipv4Header (tos 0x0 DSCP Default ECN Not-ECT ttl 255 id 0 protocol 17 offset (bytes) 0 flags [none] length: 92 10.0.1.1 > 10.0.1.2) ns3::UdpHeader (length: 72 520 > 520) ns3::RipHeader (command 2 | prefix 10.0.0.0/24 Metric 1 Tag 0 Next Hop 0.0.0.0 | prefix 10.0.5.0/24 Metric 1 Tag 0 Next Hop 0.0.0.0 | prefix 10.0.6.0/24 Metric 1 Tag 0 Next Hop 0.0.0.0) ns3::EthernetTrailer (fcs=0)
+ 0.862816 /NodeList/1/DeviceList/1/$ns3::CsmaNetDevice/TxQueue/Enqueue ns3::EthernetHeader ( length/type=0x800, source=00:00:00:00:00:03, destination=01:00:5e:00:00:09) ns3::Ipv4Header (tos 0x0 DSCP Default ECN Not-ECT ttl 1 id 0 protocol 17 offset (bytes) 0 flags [none] length: 52 10.0.1.1 > 224.0.0.9) ns3::UdpHeader (length: 32 520 > 520) ns3::RipHeader (command 1 | prefix 0.0.0.0/0 Metric 16 Tag 0 Next Hop 0.0.0.0) ns3::EthernetTrailer (fcs=0)
- 0.862816 /NodeList/1/DeviceList/1/$ns3::CsmaNetDevice/TxQueue/Dequeue ns3::EthernetHeader ( length/type=0x800, source=00:00:00:00:00:03, destination=01:00:5e:00:00:09) ns3::Ipv4Header (tos 0x0 DSCP Default ECN Not-ECT ttl 1 id 0 protocol 17 offset (bytes) 0 flags [none] length: 52 10.0.1.1 > 224.0.0.9) ns3::UdpHeader (length: 32 520 > 520) ns3::RipHeader (command 1 | prefix 0.0.0.0/0 Metric 16 Tag 0 Next Hop 0.0.0.0) ns3::EthernetTrailer (fcs=0)
r 0.863818 /NodeList/2/DeviceList/0/$ns3::CsmaNetDevice/MacRx ns3::EthernetHeader ( length/type=0x800, source=00:00:00:00:00:03, destination=01:00:5e:00:00:09) ns3::Ipv4Header (tos 0x0 DSCP Default ECN Not-ECT ttl 1 id 0 protocol 17 offset (bytes) 0 flags [none] length: 52 10.0.1.1 > 224.0.0.9) ns3::UdpHeader (length: 32 520 > 520) ns3::RipHeader (command 1 | prefix 0.0.0.0/0 Metric 16 Tag 0 Next Hop 0.0.0.0) ns3::EthernetTrailer (fcs=0)
+ 0.871818 /NodeList/2/DeviceList/0/$ns3::CsmaNetDevice/TxQueue/Enqueue ns3::EthernetHeader ( length/type=0x806, source=00:00:00:00:00:04, destination=ff:ff:ff:ff:ff:ff) ns3::ArpHeader (request source mac: 00-06-00:00:00:00:00:04 source ipv4: 10.0.1.2 dest ipv4: 10.0.1.1) Payload (size=18) ns3::EthernetTrailer (fcs=0)
- 0.871818 /NodeList/2/DeviceList/0/$ns3::CsmaNetDevice/TxQueue/Dequeue ns3::EthernetHeader ( length/type=0x806, source=00:00:00:00:00:04, destination=ff:ff:ff:ff:ff:ff) ns3::ArpHeader (request source mac: 00-06-00:00:00:00:00:04 source ipv4: 10.0.1.2 dest ipv4: 10.0.1.1) Payload (size=18) ns3::EthernetTrailer (fcs=0)
r 0.872821 /NodeList/1/DeviceList/1/$ns3::CsmaNetDevice/MacRx ns3::EthernetHeader ( length/type=0x806, source=00:00:00:00:00:04, destination=ff:ff:ff:ff:ff:ff) ns3::ArpHeader (request source mac: 00-06-00:00:00:00:00:04 source ipv4: 10.0.1.2 dest ipv4: 10.0.1.1) Payload (size=18) ns3::EthernetTrailer (fcs=0)
+ 0.872821 /NodeList/1/DeviceList/1/$ns3::CsmaNetDevice/TxQueue/Enqueue ns3::EthernetHeader ( length/type=0x806, source=00:00:00:00:00:03, destination=00:00:00:00:00:04) ns3::ArpHeader (reply source mac: 00-06-00:00:00:00:00:03 source ipv4: 10.0.1.1 dest mac: 00-06-00:00:00:00:00:04 dest ipv4: 10.0.1.2) Payload (size=18) ns3::EthernetTrailer (fcs=0)
- 0.872821 /NodeList/1/DeviceList/1/$ns3::CsmaNetDevice/TxQueue/Dequeue ns3::EthernetHeader ( length/type=0x806, source=00:00:00:00:00:03, destination=00:00:00:00:00:04) ns3::ArpHeader (reply source mac: 00-06-00:00:00:00:00:03 source ipv4: 10.0.1.1 dest mac: 00-06-00:00:00:00:00:04 dest ipv4: 10.0.1.2) Payload (size=18) ns3::EthernetTrailer (fcs=0)
r 0.873824 /NodeList/2/DeviceList/0/$ns3::CsmaNetDevice/MacRx ns3::EthernetHeader ( length/type=0x806, source=00:00:00:00:00:03, destination=00:00:00:00:00:04) ns3::ArpHeader (reply source mac: 00-06-00:00:00:00:00:03 source ipv4: 10.0.1.1 dest mac: 00-06-00:00:00:00:00:04 dest ipv4: 10.0.1.2) Payload (size=18) ns3::EthernetTrailer (fcs=0)
+ 0.873824 /NodeList/2/DeviceList/0/$ns3::CsmaNetDevice/TxQueue/Enqueue ns3::EthernetHeader ( length/type=0x800, source=00:00:00:00:00:04, destination=00:00:00:00:00:03) ns3::Ipv4Header (tos 0x0 DSCP Default ECN Not-ECT ttl 255 id 0 protocol 17 offset (bytes) 0 flags [none] length: 112 10.0.1.2 > 10.0.1.1) ns3::UdpHeader (length: 92 520 > 520) ns3::RipHeader (command 2 | prefix 10.0.2.0/24 Metric 1 Tag 0 Next Hop 0.0.0.0 | prefix 10.0.3.0/24 Metric 1 Tag 0 Next Hop 0.0.0.0 | prefix 10.0.4.0/24 Metric 1 Tag 0 Next Hop 0.0.0.0 | prefix 10.0.7.0/24 Metric 1 Tag 0 Next Hop 0.0.0.0) ns3::EthernetTrailer (fcs=0)
- 0.873824 /NodeList/2/DeviceList/0/$ns3::CsmaNetDevice/TxQueue/Dequeue ns3::EthernetHeader ( length/type=0x800, source=00:00:00:00:00:04, destination=00:00:00:00:00:03) ns3::Ipv4Header (tos 0x0 DSCP Default ECN Not-ECT ttl 255 id 0 protocol 17 offset (bytes) 0 flags [none] length: 112 10.0.1.2 > 10.0.1.1) ns3::UdpHeader (length: 92 520 > 520) ns3::RipHeader (command 2 | prefix 10.0.2.0/24 Metric 1 Tag 0 Next Hop 0.0.0.0 | prefix 10.0.3.0/24 Metric 1 Tag 0 Next Hop 0.0.0.0 | prefix 10.0.4.0/24 Metric 1 Tag 0 Next Hop 0.0.0.0 | prefix 10.0.7.0/24 Metric 1 Tag 0 Next Hop 0.0.0.0) ns3::EthernetTrailer (fcs=0)
r 0.874831 /NodeList/1/DeviceList/1/$ns3::CsmaNetDevice/MacRx ns3::EthernetHeader ( length/type=0x800, source=00:00:00:00:00:04, destination=00:00:00:00:00:03) ns3::Ipv4Header (tos 0x0 DSCP Default ECN Not-ECT ttl 255 id 0 protocol 17 offset (bytes) 0 flags [none] length: 112 10.0.1.2 > 10.0.1.1) ns3::UdpHeader (length: 92 520 > 520) ns3::RipHeader (command 2 | prefix 10.0.2.0/24 Metric 1 Tag 0 Next Hop 0.0.0.0 | prefix 10.0.3.0/24 Metric 1 Tag 0 Next Hop 0.0.0.0 | prefix 10.0.4.0/24 Metric 1 Tag 0 Next Hop 0.0.0.0 | prefix 10.0.7.0/24 Metric 1 Tag 0 Next Hop 0.0.0.0) ns3::EthernetTrailer (fcs=0)
+ 1.001 /NodeList/3/DeviceList/0/$ns3::CsmaNetDevice/TxQueue/Enqueue ns3::EthernetHeader ( length/type=0x806, source=00:00:00:00:00:06, destination=ff:ff:ff:ff:ff:ff) ns3::ArpHeader (request source mac: 00-06-00:00:00:00:00:06 source ipv4: 10.0.2.2 dest ipv4: 10.0.2.1) Payload (size=18) ns3::EthernetTrailer (fcs=0)
- 1.001 /NodeList/3/DeviceList/0/$ns3::CsmaNetDevice/TxQueue/Dequeue ns3::EthernetHeader ( length/type=0x806, source=00:00:00:00:00:06, destination=ff:ff:ff:ff:ff:ff) ns3::ArpHeader (request source mac: 00-06-00:00:00:00:00:06 source ipv4: 10.0.2.2 dest ipv4: 10.0.2.1) Payload (size=18) ns3::EthernetTrailer (fcs=0)
r 1.00301 /NodeList/2/DeviceList/1/$ns3::CsmaNetDevice/MacRx ns3::EthernetHeader ( length/type=0x806, source=00:00:00:00:00:06, destination=ff:ff:ff:ff:ff:ff) ns3::ArpHeader (request source mac: 00-06-00:00:00:00:00:06 source ipv4: 10.0.2.2 dest ipv4: 10.0.2.1) Payload (size=18) ns3::EthernetTrailer (fcs=0)
+ 1.00301 /NodeList/2/DeviceList/1/$ns3::CsmaNetDevice/TxQueue/Enqueue ns3::EthernetHeader ( length/type=0x806, source=00:00:00:00:00:05, destination=00:00:00:00:00:06) ns3::ArpHeader (reply source mac: 00-06-00:00:00:00:00:05 source ipv4: 10.0.2.1 dest mac: 00-06-00:00:00:00:00:06 dest ipv4: 10.0.2.2) Payload (size=18) ns3::EthernetTrailer (fcs=0)
- 1.00301 /NodeList/2/DeviceList/1/$ns3::CsmaNetDevice/TxQueue/Dequeue ns3::EthernetHeader ( length/type=0x806, source=00:00:00:00:00:05, destination=00:00:00:00:00:06) ns3::ArpHeader (reply source mac: 00-06-00:00:00:00:00:05 source ipv4: 10.0.2.1 dest mac: 00-06-00:00:00:00:00:06 dest ipv4: 10.0.2.2) Payload (size=18) ns3::EthernetTrailer (fcs=0)
r 1.00502 /NodeList/3/DeviceList/0/$ns3::CsmaNetDevice/MacRx ns3::EthernetHeader ( length/type=0x806, source=00:00:00:00:00:05, destination=00:00:00:00:00:06) ns3::ArpHeader (reply source mac: 00-06-00:00:00:00:00:05 source ipv4: 10.0.2.1 dest mac: 00-06-00:00:00:00:00:06 dest ipv4: 10.0.2.2) Payload (size=18) ns3::EthernetTrailer (fcs=0)
+ 1.00502 /NodeList/3/DeviceList/0/$ns3::CsmaNetDevice/TxQueue/Enqueue ns3::EthernetHeader ( length/type=0x800, source=00:00:00:00:00:06, destination=00:00:00:00:00:05) ns3::Ipv4Header (tos 0x0 DSCP Default ECN Not-ECT ttl 64 id 0 protocol 17 offset (bytes) 0 flags [none] length: 1052 10.0.2.2 > 10.0.0.1) ns3::UdpHeader (length: 1032 49153 > 4000) ns3::SeqTsHeader ((seq=0 time=1)) Payload (size=1012) ns3::EthernetTrailer (fcs=0)
- 1.00502 /NodeList/3/DeviceList/0/$ns3::CsmaNetDevice/TxQueue/Dequeue ns3::EthernetHeader ( length/type=0x800, source=00:00:00:00:00:06, destination=00:00:00:00:00:05) ns3::Ipv4Header (tos 0x0 DSCP Default ECN Not-ECT ttl 64 id 0 protocol 17 offset (bytes) 0 flags [none] length: 1052 10.0.2.2 > 10.0.0.1) ns3::UdpHeader (length: 1032 49153 > 4000) ns3::SeqTsHeader ((seq=0 time=1)) Payload (size=1012) ns3::EthernetTrailer (fcs=0)
r 1.00716 /NodeList/2/DeviceList/1/$ns3::CsmaNetDevice/MacRx ns3::EthernetHeader ( length/type=0x800, source=00:00:00:00:00:06, destination=00:00:00:00:00:05) ns3::Ipv4Header (tos 0x0 DSCP Default ECN Not-ECT ttl 64 id 0 protocol 17 offset (bytes) 0 flags [none] length: 1052 10.0.2.2 > 10.0.0.1) ns3::UdpHeader (length: 1032 49153 > 4000) ns3::SeqTsHeader ((seq=0 time=1)) Payload (size=1012) ns3::EthernetTrailer (fcs=0)
+ 2.89709 /NodeList/1/DeviceList/1/$ns3::CsmaNetDevice/TxQueue/Enqueue ns3::EthernetHeader ( length/type=0x800, source=00:00:00:00:00:03, destination=01:00:5e:00:00:09) ns3::Ipv4Header (tos 0x0 DSCP Default ECN Not-ECT ttl 1 id 1 protocol 17 offset (bytes) 0 flags [none] length: 92 10.0.1.1 > 224.0.0.9) ns3::UdpHeader (length: 72 520 > 520) ns3::RipHeader (command 2 | prefix 10.0.0.0/24 Metric 1 Tag 0 Next Hop 0.0.0.0 | prefix 10.0.5.0/24 Metric 1 Tag 0 Next Hop 0.0.0.0 | prefix 10.0.6.0/24 Metric 1 Tag 0 Next Hop 0.0.0.0) ns3::EthernetTrailer (fcs=0)
- 2.89709 /NodeList/1/DeviceList/1/$ns3::CsmaNetDevice/TxQueue/Dequeue ns3::EthernetHeader ( length/type=0x800, source=00:00:00:00:00:03, destination=01:00:5e:00:00:09) ns3::Ipv4Header (tos 0x0 DSCP Default ECN Not-ECT ttl 1 id 1 protocol 17 offset (bytes) 0 flags [none] length: 92 10.0.1.1 > 224.0.0.9) ns3::UdpHeader (length: 72 520 > 520) ns3::RipHeader (command 2 | prefix 10.0.0.0/24 Metric 1 Tag 0 Next Hop 0.0.0.0 | prefix 10.0.5.0/24 Metric 1 Tag 0 Next Hop 0.0.0.0 | prefix 10.0.6.0/24 Metric 1 Tag 0 Next Hop 0.0.0.0) ns3::EthernetTrailer (fcs=0)
r 2.89809 /NodeList/2/DeviceList/0/$ns3::CsmaNetDevice/MacRx ns3::EthernetHeader ( length/type=0x800, source=00:00:00:00:00:03, destination=01:00:5e:00:00:09) ns3::Ipv4Header (tos 0x0 DSCP Default ECN Not-ECT ttl 1 id 1 protocol 17 offset (bytes) 0 flags [none] length: 92 10.0.1.1 > 224.0.0.9) ns3::UdpHeader (length: 72 520 > 520) ns3::RipHeader (command 2 | prefix 10.0.0.0/24 Metric 1 Tag 0 Next Hop 0.0.0.0 | prefix 10.0.5.0/24 Metric 1 Tag 0 Next Hop 0.0.0.0 | prefix 10.0.6.0/24 Metric 1 Tag 0 Next Hop 0.0.0.0) ns3::EthernetTrailer (fcs=0)
+ 3.87104 /NodeList/2/DeviceList/0/$ns3::CsmaNetDevice/TxQueue/Enqueue ns3::EthernetHeader ( length/type=0x800, source=00:00:00:00:00:04, destination=01:00:5e:00:00:09) ns3::Ipv4Header (tos 0x0 DSCP Default ECN Not-ECT ttl 1 id 1 protocol 17 offset (bytes) 0 flags [none] length: 112 10.0.1.2 > 224.0.0.9) ns3::UdpHeader (length: 92 520 > 520) ns3::RipHeader (command 2 | prefix 10.0.2.0/24 Metric 1 Tag 0 Next Hop 0.0.0.0 | prefix 10.0.3.0/24 Metric 1 Tag 0 Next Hop 0.0.0.0 | prefix 10.0.4.0/24 Metric 1 Tag 0 Next Hop 0.0.0.0 | prefix 10.0.7.0/24 Metric 1 Tag 0 Next Hop 0.0.0.0) ns3::EthernetTrailer (fcs=0)
- 3.87104 /NodeList/2/DeviceList/0/$ns3::CsmaNetDevice/TxQueue/Dequeue ns3::EthernetHeader ( length/type=0x800, source=00:00:00:00:00:04, destination=01:00:5e:00:00:09) ns3::Ipv4Header (tos 0x0 DSCP Default ECN Not-ECT ttl 1 id 1 protocol 17 offset (bytes) 0 flags [none] length: 112 10.0.1.2 > 224.0.0.9) ns3::UdpHeader (length: 92 520 > 520) ns3::RipHeader (command 2 | prefix 10.0.2.0/24 Metric 1 Tag 0 Next Hop 0.0.0.0 | prefix 10.0.3.0/24 Metric 1 Tag 0 Next Hop 0.0.0.0 | prefix 10.0.4.0/24 Metric 1 Tag 0 Next Hop 0.0.0.0 | prefix 10.0.7.0/24 Metric 1 Tag 0 Next Hop 0.0.0.0) ns3::EthernetTrailer (fcs=0)
r 3.87204 /NodeList/1/DeviceList/1/$ns3::CsmaNetDevice/MacRx ns3::EthernetHeader ( length/type=0x800, source=00:00:00:00:00:04, destination=01:00:5e:00:00:09) ns3::Ipv4Header (tos 0x0 DSCP Default ECN Not-ECT ttl 1 id 1 protocol 17 offset (bytes) 0 flags [none] length: 112 10.0.1.2 > 224.0.0.9) ns3::UdpHeader (length: 92 520 > 520) ns3::RipHeader (command 2 | prefix 10.0.2.0/24 Metric 1 Tag 0 Next Hop 0.0.0.0 | prefix 10.0.3.0/24 Metric 1 Tag 0 Next Hop 0.0.0.0 | prefix 10.0.4.0/24 Metric 1 Tag 0 Next Hop 0.0.0.0 | prefix 10.0.7.0/24 Metric 1 Tag 0 Next Hop 0.0.0.0) ns3::EthernetTrailer (fcs=0)
+ 4 /NodeList/3/DeviceList/0/$ns3::CsmaNetDevice/TxQueue/Enqueue ns3::EthernetHeader ( length/type=0x800, source=00:00:00:00:00:06, destination=00:00:00:00:00:05) ns3::Ipv4Header (tos 0x0 DSCP Default ECN Not-ECT ttl 64 id 1 protocol 17 offset (bytes) 0 flags [none] length: 1052 10.0.2.2 > 10.0.0.1) ns3::UdpHeader (length: 1032 49153 > 4000) ns3::SeqTsHeader ((seq=1 time=4)) Payload (size=1012) ns3::EthernetTrailer (fcs=0)
- 4 /NodeList/3/DeviceList/0/$ns3::CsmaNetDevice/TxQueue/Dequeue ns3::EthernetHeader ( length/type=0x800, source=00:00:00:00:00:06, destination=00:00:00:00:00:05) ns3::Ipv4Header (tos 0x0 DSCP Default ECN Not-ECT ttl 64 id 1 protocol 17 offset (bytes) 0 flags [none] length: 1052 10.0.2.2 > 10.0.0.1) ns3::UdpHeader (length: 1032 49153 > 4000) ns3::SeqTsHeader ((seq=1 time=4)) Payload (size=1012) ns3::EthernetTrailer (fcs=0)
r 4.00214 /NodeList/2/DeviceList/1/$ns3::CsmaNetDevice/MacRx ns3::EthernetHeader ( length/type=0x800, source=00:00:00:00:00:06, destination=00:00:00:00:00:05) ns3::Ipv4Header (tos 0x0 DSCP Default ECN Not-ECT ttl 64 id 1 protocol 17 offset (bytes) 0 flags [none] length: 1052 10.0.2.2 > 10.0.0.1) ns3::UdpHeader (length: 1032 49153 > 4000) ns3::SeqTsHeader ((seq=1 time=4)) Payload (size=1012) ns3::EthernetTrailer (fcs=0)
+ 4.00214 /NodeList/2/DeviceList/0/$ns3::CsmaNetDevice/TxQueue/Enqueue ns3::EthernetHeader ( length/type=0x800, source=00:00:00:00:00:04, destination=00:00:00:00:00:03) ns3::Ipv4Header (tos 0x0 DSCP Default ECN Not-ECT ttl 63 id 1 protocol 17 offset (bytes) 0 flags [none] length: 1052 10.0.2.2 > 10.0.0.1) ns3::UdpHeader (length: 1032 49153 > 4000) ns3::SeqTsHeader ((seq=1 time=4)) Payload (size=1012) ns3::EthernetTrailer (fcs=0)
- 4.00214 /NodeList/2/DeviceList/0/$ns3::CsmaNetDevice/TxQueue/Dequeue ns3::EthernetHeader ( length/type=0x800, source=00:00:00:00:00:04, destination=00:00:00:00:00:03) ns3::Ipv4Header (tos 0x0 DSCP Default ECN Not-ECT ttl 63 id 1 protocol 17 offset (bytes) 0 flags [none] length: 1052 10.0.2.2 > 10.0.0.1) ns3::UdpHeader (length: 1032 49153 > 4000) ns3::SeqTsHeader ((seq=1 time=4)) Payload (size=1012) ns3::EthernetTrailer (fcs=0)
r 4.00319 /NodeList/1/DeviceList/1/$ns3::CsmaNetDevice/MacRx ns3::EthernetHeader ( length/type=0x800, source=00:00:00:00:00:04, destination=00:00:00:00:00:03) ns3::Ipv4Header (tos 0x0 DSCP Default ECN Not-ECT ttl 63 id 1 protocol 17 offset (bytes) 0 flags [none] length: 1052 10.0.2.2 > 10.0.0.1) ns3::UdpHeader (length: 1032 49153 > 4000) ns3::SeqTsHeader ((seq=1 time=4)) Payload (size=1012) ns3::EthernetTrailer (fcs=0)
+ 4.00419 /NodeList/1/DeviceList/0/$ns3::CsmaNetDevice/TxQueue/Enqueue ns3::EthernetHeader ( length/type=0x806, source=00:00:00:00:00:02, destination=ff:ff:ff:ff:ff:ff) ns3::ArpHeader (request source mac: 00-06-00:00:00:00:00:02 source ipv4: 10.0.0.2 dest ipv4: 10.0.0.1) Payload (size=18) ns3::EthernetTrailer (fcs=0)
- 4.00419 /NodeList/1/DeviceList/0/$ns3::CsmaNetDevice/TxQueue/Dequeue ns3::EthernetHeader ( length/type=0x806, source=00:00:00:00:00:02, destination=ff:ff:ff:ff:ff:ff) ns3::ArpHeader (request source mac: 00-06-00:00:00:00:00:02 source ipv4: 10.0.0.2 dest ipv4: 10.0.0.1) Payload (size=18) ns3::EthernetTrailer (fcs=0)
r 4.00519 /NodeList/0/DeviceList/0/$ns3::CsmaNetDevice/MacRx ns3::EthernetHeader ( length/type=0x806, source=00:00:00:00:00:02, destination=ff:ff:ff:ff:ff:ff) ns3::ArpHeader (request source mac: 00-06-00:00:00:00:00:02 source ipv4: 10.0.0.2 dest ipv4: 10.0.0.1) Payload (size=18) ns3::EthernetTrailer (fcs=0)
+ 4.00519 /NodeList/0/DeviceList/0/$ns3::CsmaNetDevice/TxQueue/Enqueue ns3::EthernetHeader ( length/type=0x806, source=00:00:00:00:00:01, destination=00:00:00:00:00:02) ns3::ArpHeader (reply source mac: 00-06-00:00:00:00:00:01 source ipv4: 10.0.0.1 dest mac: 00-06-00:00:00:00:00:02 dest ipv4: 10.0.0.2) Payload (size=18) ns3::EthernetTrailer (fcs=0)
- 4.00519 /NodeList/0/DeviceList/0/$ns3::CsmaNetDevice/TxQueue/Dequeue ns3::EthernetHeader ( length/type=0x806, source=00:00:00:00:00:01, destination=00:00:00:00:00:02) ns3::ArpHeader (reply source mac: 00-06-00:00:00:00:00:01 source ipv4: 10.0.0.1 dest mac: 00-06-00:00:00:00:00:02 dest ipv4: 10.0.0.2) Payload (size=18) ns3::EthernetTrailer (fcs=0)
r 4.00619 /NodeList/1/DeviceList/0/$ns3::CsmaNetDevice/MacRx ns3::EthernetHeader ( length/type=0x806, source=00:00:00:00:00:01, destination=00:00:00:00:00:02) ns3::ArpHeader (reply source mac: 00-06-00:00:00:00:00:01 source ipv4: 10.0.0.1 dest mac: 00-06-00:00:00:00:00:02 dest ipv4: 10.0.0.2) Payload (size=18) ns3::EthernetTrailer (fcs=0)
+ 4.00619 /NodeList/1/DeviceList/0/$ns3::CsmaNetDevice/TxQueue/Enqueue ns3::EthernetHeader ( length/type=0x800, source=00:00:00:00:00:02, destination=00:00:00:00:00:01) ns3::Ipv4Header (tos 0x0 DSCP Default ECN Not-ECT ttl 62 id 1 protocol 17 offset (bytes) 0 flags [none] length: 1052 10.0.2.2 > 10.0.0.1) ns3::UdpHeader (length: 1032 49153 > 4000) ns3::SeqTsHeader ((seq=1 time=4)) Payload (size=1012) ns3::EthernetTrailer (fcs=0)
- 4.00619 /NodeList/1/DeviceList/0/$ns3::CsmaNetDevice/TxQueue/Dequeue ns3::EthernetHeader ( length/type=0x800, source=00:00:00:00:00:02, destination=00:00:00:00:00:01) ns3::Ipv4Header (tos 0x0 DSCP Default ECN Not-ECT ttl 62 id 1 protocol 17 offset (bytes) 0 flags [none] length: 1052 10.0.2.2 > 10.0.0.1) ns3::UdpHeader (length: 1032 49153 > 4000) ns3::SeqTsHeader ((seq=1 time=4)) Payload (size=1012) ns3::EthernetTrailer (fcs=0)
r 4.00724 /NodeList/0/DeviceList/0/$ns3::CsmaNetDevice/MacRx ns3::EthernetHeader ( length/type=0x800, source=00:00:00:00:00:02, destination=00:00:00:00:00:01) ns3::Ipv4Header (tos 0x0 DSCP Default ECN Not-ECT ttl 62 id 1 protocol 17 offset (bytes) 0 flags [none] length: 1052 10.0.2.2 > 10.0.0.1) ns3::UdpHeader (length: 1032 49153 > 4000) ns3::SeqTsHeader ((seq=1 time=4)) Payload (size=1012) ns3::EthernetTrailer (fcs=0)
+ 4.00724 /NodeList/0/DeviceList/0/$ns3::CsmaNetDevice/TxQueue/Enqueue ns3::EthernetHeader ( length/type=0x806, source=00:00:00:00:00:01, destination=ff:ff:ff:ff:ff:ff) ns3::ArpHeader (request source mac: 00-06-00:00:00:00:00:01 source ipv4: 10.0.0.1 dest ipv4: 10.0.0.2) Payload (size=18) ns3::EthernetTrailer (fcs=0)
- 4.00724 /NodeList/0/DeviceList/0/$ns3::CsmaNetDevice/TxQueue/Dequeue ns3::EthernetHeader ( length/type=0x806, source=00:00:00:00:00:01, destination=ff:ff:ff:ff:ff:ff) ns3::ArpHeader (request source mac: 00-06-00:00:00:00:00:01 source ipv4: 10.0.0.1 dest ipv4: 10.0.0.2) Payload (size=18) ns3::EthernetTrailer (fcs=0)
r 4.00824 /NodeList/1/DeviceList/0/$ns3::CsmaNetDevice/MacRx ns3::EthernetHeader ( length/type=0x806, source=00:00:00:00:00:01, destination=ff:ff:ff:ff:ff:ff) ns3::ArpHeader (request source mac: 00-06-00:00:00:00:00:01 source ipv4: 10.0.0.1 dest ipv4: 10.0.0.2) Payload (size=18) ns3::EthernetTrailer (fcs=0)
+ 4.00824 /NodeList/1/DeviceList/0/$ns3::CsmaNetDevice/TxQueue/Enqueue ns3::EthernetHeader ( length/type=0x806, source=00:00:00:00:00:02, destination=00:00:00:00:00:01) ns3::ArpHeader (reply source mac: 00-06-00:00:00:00:00:02 source ipv4: 10.0.0.2 dest mac: 00-06-00:00:00:00:00:01 dest ipv4: 10.0.0.1) Payload (size=18) ns3::EthernetTrailer (fcs=0)
- 4.00824 /NodeList/1/DeviceList/0/$ns3::CsmaNetDevice/TxQueue/Dequeue ns3::EthernetHeader ( length/type=0x806, source=00:00:00:00:00:02, destination=00:00:00:00:00:01) ns3::ArpHeader (reply source mac: 00-06-00:00:00:00:00:02 source ipv4: 10.0.0.2 dest mac: 00-06-00:00:00:00:00:01 dest ipv4: 10.0.0.1) Payload (size=18) ns3::EthernetTrailer (fcs=0)
r 4.00924 /NodeList/0/DeviceList/0/$ns3::CsmaNetDevice/MacRx ns3::EthernetHeader ( length/type=0x806, source=00:00:00:00:00:02, destination=00:00:00:00:00:01) ns3::ArpHeader (reply source mac: 00-06-00:00:00:00:00:02 source ipv4: 10.0.0.2 dest mac: 00-06-00:00:00:00:00:01 dest ipv4: 10.0.0.1) Payload (size=18) ns3::EthernetTrailer (fcs=0)
+ 4.00924 /NodeList/0/DeviceList/0/$ns3::CsmaNetDevice/TxQueue/Enqueue ns3::EthernetHeader ( length/type=0x800, source=00:00:00:00:00:01, destination=00:00:00:00:00:02) ns3::Ipv4Header (tos 0x0 DSCP Default ECN Not-ECT ttl 64 id 0 protocol 1 offset (bytes) 0 flags [none] length: 56 10.0.0.1 > 10.0.2.2) ns3::Icmpv4Header (type=3, code=3) ns3::Icmpv4DestinationUnreachable (tos 0x0 DSCP Default ECN Not-ECT ttl 62 id 1 protocol 17 offset (bytes) 0 flags [none] length: 1052 10.0.2.2 > 10.0.0.1 org data=192 1 15 160 4 8 0 0 ) ns3::EthernetTrailer (fcs=0)
- 4.00924 /NodeList/0/DeviceList/0/$ns3::CsmaNetDevice/TxQueue/Dequeue ns3::EthernetHeader ( length/type=0x800, source=00:00:00:00:00:01, destination=00:00:00:00:00:02) ns3::Ipv4Header (tos 0x0 DSCP Default ECN Not-ECT ttl 64 id 0 protocol 1 offset (bytes) 0 flags [none] length: 56 10.0.0.1 > 10.0.2.2) ns3::Icmpv4Header (type=3, code=3) ns3::Icmpv4DestinationUnreachable (tos 0x0 DSCP Default ECN Not-ECT ttl 62 id 1 protocol 17 offset (bytes) 0 flags [none] length: 1052 10.0.2.2 > 10.0.0.1 org data=192 1 15 160 4 8 0 0 ) ns3::EthernetTrailer (fcs=0)
r 4.01025 /NodeList/1/DeviceList/0/$ns3::CsmaNetDevice/MacRx ns3::EthernetHeader ( length/type=0x800, source=00:00:00:00:00:01, destination=00:00:00:00:00:02) ns3::Ipv4Header (tos 0x0 DSCP Default ECN Not-ECT ttl 64 id 0 protocol 1 offset (bytes) 0 flags [none] length: 56 10.0.0.1 > 10.0.2.2) ns3::Icmpv4Header (type=3, code=3) ns3::Icmpv4DestinationUnreachable (tos 0x0 DSCP Default ECN Not-ECT ttl 62 id 1 protocol 17 offset (bytes) 0 flags [none] length: 1052 10.0.2.2 > 10.0.0.1 org data=192 1 15 160 4 8 0 0 ) ns3::EthernetTrailer (fcs=0)
+ 4.01025 /NodeList/1/DeviceList/1/$ns3::CsmaNetDevice/TxQueue/Enqueue ns3::EthernetHeader ( length/type=0x800, source=00:00:00:00:00:03, destination=00:00:00:00:00:04) ns3::Ipv4Header (tos 0x0 DSCP Default ECN Not-ECT ttl 63 id 0 protocol 1 offset (bytes) 0 flags [none] length: 56 10.0.0.1 > 10.0.2.2) ns3::Icmpv4Header (type=3, code=3) ns3::Icmpv4DestinationUnreachable (tos 0x0 DSCP Default ECN Not-ECT ttl 62 id 1 protocol 17 offset (bytes) 0 flags [none] length: 1052 10.0.2.2 > 10.0.0.1 org data=192 1 15 160 4 8 0 0 ) ns3::EthernetTrailer (fcs=0)
- 4.01025 /NodeList/1/DeviceList/1/$ns3::CsmaNetDevice/TxQueue/Dequeue ns3::EthernetHeader ( length/type=0x800, source=00:00:00:00:00:03, destination=00:00:00:00:00:04) ns3::Ipv4Header (tos 0x0 DSCP Default ECN Not-ECT ttl 63 id 0 protocol 1 offset (bytes) 0 flags [none] length: 56 10.0.0.1 > 10.0.2.2) ns3::Icmpv4Header (type=3, code=3) ns3::Icmpv4DestinationUnreachable (tos 0x0 DSCP Default ECN Not-ECT ttl 62 id 1 protocol 17 offset (bytes) 0 flags [none] length: 1052 10.0.2.2 > 10.0.0.1 org data=192 1 15 160 4 8 0 0 ) ns3::EthernetTrailer (fcs=0)
r 4.01125 /NodeList/2/DeviceList/0/$ns3::CsmaNetDevice/MacRx ns3::EthernetHeader ( length/type=0x800, source=00:00:00:00:00:03, destination=00:00:00:00:00:04) ns3::Ipv4Header (tos 0x0 DSCP Default ECN Not-ECT ttl 63 id 0 protocol 1 offset (bytes) 0 flags [none] length: 56 10.0.0.1 > 10.0.2.2) ns3::Icmpv4Header (type=3, code=3) ns3::Icmpv4DestinationUnreachable (tos 0x0 DSCP Default ECN Not-ECT ttl 62 id 1 protocol 17 offset (bytes) 0 flags [none] length: 1052 10.0.2.2 > 10.0.0.1 org data=192 1 15 160 4 8 0 0 ) ns3::EthernetTrailer (fcs=0)
+ 4.02025 /NodeList/2/DeviceList/1/$ns3::CsmaNetDevice/TxQueue/Enqueue ns3::EthernetHeader ( length/type=0x806, source=00:00:00:00:00:05, destination=ff:ff:ff:ff:ff:ff) ns3::ArpHeader (request source mac: 00-06-00:00:00:00:00:05 source ipv4: 10.0.2.1 dest ipv4: 10.0.2.2) Payload (size=18) ns3::EthernetTrailer (fcs=0)
- 4.02025 /NodeList/2/DeviceList/1/$ns3::CsmaNetDevice/TxQueue/Dequeue ns3::EthernetHeader ( length/type=0x806, source=00:00:00:00:00:05, destination=ff:ff:ff:ff:ff:ff) ns3::ArpHeader (request source mac: 00-06-00:00:00:00:00:05 source ipv4: 10.0.2.1 dest ipv4: 10.0.2.2) Payload (size=18) ns3::EthernetTrailer (fcs=0)
r 4.02226 /NodeList/3/DeviceList/0/$ns3::CsmaNetDevice/MacRx ns3::EthernetHeader ( length/type=0x806, source=00:00:00:00:00:05, destination=ff:ff:ff:ff:ff:ff) ns3::ArpHeader (request source mac: 00-06-00:00:00:00:00:05 source ipv4: 10.0.2.1 dest ipv4: 10.0.2.2) Payload (size=18) ns3::EthernetTrailer (fcs=0)
+ 4.02226 /NodeList/3/DeviceList/0/$ns3::CsmaNetDevice/TxQueue/Enqueue ns3::EthernetHeader ( length/type=0x806, source=00:00:00:00:00:06, destination=00:00:00:00:00:05) ns3::ArpHeader (reply source mac: 00-06-00:00:00:00:00:06 source ipv4: 10.0.2.2 dest mac: 00-06-00:00:00:00:00:05 dest ipv4: 10.0.2.1) Payload (size=18) ns3::EthernetTrailer (fcs=0)
- 4.02226 /NodeList/3/DeviceList/0/$ns3::CsmaNetDevice/TxQueue/Dequeue ns3::EthernetHeader ( length/type=0x806, source=00:00:00:00:00:06, destination=00:00:00:00:00:05) ns3::ArpHeader (reply source mac: 00-06-00:00:00:00:00:06 source ipv4: 10.0.2.2 dest mac: 00-06-00:00:00:00:00:05 dest ipv4: 10.0.2.1) Payload (size=18) ns3::EthernetTrailer (fcs=0)